                         Program Version 4.1.0  - RELEASE  -
|  1> # my first orca computation of water
|  2> ! B3LYP def2-SVP Opt
|  3> *xyz 0 1
|  4> O 0.0 0.0 0.0
|  5> H 0.0 0.8 0.6
|  6> H 0.0 -0.8 0.6
|  7> *
|  8>
|  9>                          ****END OF INPUT****
 Total Charge           Charge          ....    0
 Multiplicity           Mult            ....    1
 Number of Electrons    NEL             ....   10
FINAL SINGLE POINT ENERGY       -76.318817724231
FINAL SINGLE POINT ENERGY       -76.321124140989
FINAL SINGLE POINT ENERGY       -76.321148054191
FINAL SINGLE POINT ENERGY       -76.321155296517
                    ***********************HURRAY********************

CARTESIAN COORDINATES (ANGSTROEM)
---------------------------------
  O      0.000000   -0.000000   -0.000681
  H      0.000000    0.757406    0.600341
  H      0.000000   -0.757406    0.600341

 Multiplicity           Mult            ....    1
 Number of Electrons    NEL             ....   10
 Basis Dimension        Dim             ....   24

ORBITAL ENERGIES
----------------

  NO   OCC          E(Eh)            E(eV)
   0   2.0000     -19.115932      -520.1710
   1   2.0000      -0.976145       -26.5623
   2   2.0000      -0.507957       -13.8222
   3   2.0000      -0.364491        -9.9183
   4   2.0000      -0.287767        -7.8305
   5   0.0000       0.048136         1.3099
   6   0.0000       0.126024         3.4293
   7   0.0000       0.558453        15.1963
   8   0.0000       0.624153        16.9841
   9   0.0000       0.920693        25.0533

MULLIKEN ATOMIC CHARGES
-----------------------
   0 O :   -0.292350
   1 H :    0.146175
   2 H :    0.146175
Sum of atomic charges:    0.0000000

LOEWDIN ATOMIC CHARGES
----------------------
   0 O :   -0.149462
   1 H :    0.074731
   2 H :    0.074731

  Mayer bond orders larger than 0.1
B(  0-O ,  1-H ) :   1.0085 B(  0-O ,  2-H ) :   1.0085

FINAL SINGLE POINT ENERGY       -76.321155477796

DIPOLE MOMENT
-------------
                                X             Y             Z
Electronic contribution:     -0.00000      -0.00000      -0.21397
Nuclear contribution   :      0.00000       0.00000       1.00053
                        -----------------------------------------
Total Dipole Moment    :     -0.00000       0.00000       0.78657
                        -----------------------------------------
Magnitude (a.u.)       :      0.78657
Magnitude (Debye)      :      1.99930

Rotational constants in cm-1:    26.065603    14.576370     9.348510
Rotational constants in MHz : 781427.123943 436988.584727 280261.269228

                             ****ORCA TERMINATED NORMALLY****
TOTAL RUN TIME: 0 days 0 hours 0 minutes 39 seconds 38 msec
